REMARK  Name = 60823
REMARK  17 active torsions:
REMARK  status: ('A' for Active; 'I' for Inactive)
REMARK    1  A    between atoms: O_2  and  C_16
REMARK    2  A    between atoms: O_3  and  C_22
REMARK    3  A    between atoms: O_5  and  C_35
REMARK    4  A    between atoms: N_7  and  C_10
REMARK    5  A    between atoms: N_8  and  C_34
REMARK    6  A    between atoms: C_9  and  C_12
REMARK    7  A    between atoms: C_10  and  C_13
REMARK    8  A    between atoms: C_11  and  C_18
REMARK    9  A    between atoms: C_12  and  C_19
REMARK   10  A    between atoms: C_12  and  C_20
REMARK   11  A    between atoms: C_13  and  C_16
REMARK   12  A    between atoms: C_14  and  C_23
REMARK   13  A    between atoms: C_15  and  C_21
REMARK   14  A    between atoms: C_16  and  C_17
REMARK   15  A    between atoms: C_17  and  C_22
REMARK   16  A    between atoms: C_22  and  C_24
REMARK   17  A    between atoms: C_24  and  C_35
REMARK                            x       y       z     vdW  Elec       q    Type
REMARK                         _______ _______ _______ _____ _____    ______ ____
ROOT
ATOM      1  N   UNL     1      -4.348   0.332  -0.636  0.00  0.00    +0.000 N 
ATOM      2  C   UNL     1      -5.714   0.216  -0.396  0.00  0.00    +0.000 A 
ATOM      3  C   UNL     1      -3.650  -0.181   0.451  0.00  0.00    +0.000 A 
ATOM      4  C   UNL     1      -5.998  -0.262   0.897  0.00  0.00    +0.000 A 
ATOM      5  C   UNL     1      -4.648  -0.660   1.350  0.00  0.00    +0.000 A 
ENDROOT
BRANCH   3   7
ATOM      6  F   UNL     1       2.041  -0.053   0.568  0.00  0.00    +0.000 F 
ATOM      7  C   UNL     1      -2.139  -0.200   0.526  0.00  0.00    +0.000 A 
ATOM      8  C   UNL     1      -1.431   0.148   1.687  0.00  0.00    +0.000 A 
ATOM      9  C   UNL     1      -1.355  -0.623  -0.559  0.00  0.00    +0.000 A 
ATOM     10  C   UNL     1      -0.019   0.153   1.715  0.00  0.00    +0.000 A 
ATOM     11  C   UNL     1       0.042  -0.497  -0.590  0.00  0.00    +0.000 A 
ATOM     12  C   UNL     1       0.703  -0.114   0.559  0.00  0.00    +0.000 A 
ENDBRANCH   3   7
BRANCH   5  13
ATOM     13  C   UNL     1      -4.267  -1.504   2.485  0.00  0.00    +0.000 A 
ATOM     14  C   UNL     1      -4.869  -1.368   3.733  0.00  0.00    +0.000 A 
ATOM     15  C   UNL     1      -3.262  -2.477   2.325  0.00  0.00    +0.000 A 
ATOM     16  C   UNL     1      -4.459  -2.173   4.800  0.00  0.00    +0.000 A 
ATOM     17  C   UNL     1      -2.811  -3.237   3.397  0.00  0.00    +0.000 A 
ATOM     18  C   UNL     1      -3.421  -3.088   4.635  0.00  0.00    +0.000 A 
ENDBRANCH   5  13
BRANCH   4  21
ATOM     19  O   UNL     1      -7.610  -1.329   2.427  0.00  0.00    +0.000 OA
ATOM     20  N   UNL     1      -8.546   0.179   0.946  0.00  0.00    +0.000 N 
ATOM     21  C   UNL     1      -7.438  -0.510   1.525  0.00  0.00    +0.000 C 
ATOM     22  H   UNL     1      -8.257   0.845   0.278  0.00  0.00    +0.000 HD
BRANCH  20  23
ATOM     23  C   UNL     1      -9.979   0.101   0.971  0.00  0.00    +0.000 A 
ATOM     24  C   UNL     1     -10.775  -0.790   1.666  0.00  0.00    +0.000 A 
ATOM     25  C   UNL     1     -10.662   1.012   0.104  0.00  0.00    +0.000 A 
ATOM     26  C   UNL     1     -12.182  -0.823   1.468  0.00  0.00    +0.000 A 
ATOM     27  C   UNL     1     -12.057   0.976  -0.105  0.00  0.00    +0.000 A 
ATOM     28  C   UNL     1     -12.822   0.043   0.573  0.00  0.00    +0.000 A 
ENDBRANCH  20  23
ENDBRANCH   4  21
BRANCH   2  29
ATOM     29  C   UNL     1      -6.697   0.511  -1.472  0.00  0.00    +0.000 C 
ATOM     30  C   UNL     1      -7.580  -0.757  -1.612  0.00  0.00    +0.000 C 
ATOM     31  C   UNL     1      -7.189   1.956  -1.202  0.00  0.00    +0.000 C 
ENDBRANCH   2  29
BRANCH   1  32
ATOM     32  C   UNL     1      -3.780   1.046  -1.797  0.00  0.00    +0.000 C 
BRANCH  32  33
ATOM     33  C   UNL     1      -3.257   0.220  -3.000  0.00  0.00    +0.000 C 
BRANCH  33  34
ATOM     34  C   UNL     1      -3.260   1.023  -4.318  0.00  0.00    +0.000 C 
BRANCH  34  35
ATOM     35  O   UNL     1      -2.475   2.200  -4.165  0.00  0.00    +0.000 OA
ATOM     36  H   UNL     1      -3.015   2.877  -3.705  0.00  0.00    +0.000 HD
ENDBRANCH  34  35
BRANCH  34  37
ATOM     37  C   UNL     1      -2.616   0.231  -5.480  0.00  0.00    +0.000 C 
BRANCH  37  38
ATOM     38  C   UNL     1      -2.688   0.997  -6.817  0.00  0.00    +0.000 C 
BRANCH  38  39
ATOM     39  O   UNL     1      -2.089   0.193  -7.849  0.00  0.00    +0.000 OA
ATOM     40  H   UNL     1      -1.124   0.203  -7.684  0.00  0.00    +0.000 HD
ENDBRANCH  38  39
BRANCH  38  41
ATOM     41  C   UNL     1      -4.129   1.271  -7.234  0.00  0.00    +0.000 C 
BRANCH  41  43
ATOM     42  O   UNL     1      -4.793   3.172  -8.545  0.00  0.00    +0.000 OA
ATOM     43  C   UNL     1      -4.204   2.103  -8.483  0.00  0.00    +0.000 C 
BRANCH  43  44
ATOM     44  O   UNL     1      -3.610   1.524  -9.549  0.00  0.00    +0.000 OA
ATOM     45  H   UNL     1      -3.113   0.716  -9.275  0.00  0.00    +0.000 HD
ENDBRANCH  43  44
ENDBRANCH  41  43
ENDBRANCH  38  41
ENDBRANCH  37  38
ENDBRANCH  34  37
ENDBRANCH  33  34
ENDBRANCH  32  33
ENDBRANCH   1  32
TORSDOF 15
