REMARK  Name = 3961
REMARK  10 active torsions:
REMARK  status: ('A' for Active; 'I' for Inactive)
REMARK    1  A    between atoms: O_2  and  C_17
REMARK    2  A    between atoms: N_3  and  C_11
REMARK    3  A    between atoms: C_9  and  C_10
REMARK    4  A    between atoms: C_10  and  C_12
REMARK    5  A    between atoms: C_11  and  C_14
REMARK    6  A    between atoms: C_12  and  C_15
REMARK    7  A    between atoms: C_13  and  C_17
REMARK    8  A    between atoms: C_15  and  C_23
REMARK    9  A    between atoms: C_20  and  C_24
REMARK   10  A    between atoms: C_25  and  C_29
REMARK                            x       y       z     vdW  Elec       q    Type
REMARK                         _______ _______ _______ _____ _____    ______ ____
ROOT
ATOM      1  C   UNL     1       6.751  -1.994   1.067  0.00  0.00    +0.000 A 
ATOM      2  C   UNL     1       6.365  -3.329   1.162  0.00  0.00    +0.000 A 
ATOM      3  C   UNL     1       7.555  -1.481   2.091  0.00  0.00    +0.000 A 
ATOM      4  C   UNL     1       7.621  -3.671   3.218  0.00  0.00    +0.000 A 
ATOM      5  C   UNL     1       6.701  -4.112   2.264  0.00  0.00    +0.000 A 
ATOM      6  C   UNL     1       8.010  -2.319   3.130  0.00  0.00    +0.000 A 
ENDROOT
BRANCH   4   7
ATOM      7  C   UNL     1       8.183  -4.615   4.230  0.00  0.00    +0.000 A 
ATOM      8  C   UNL     1       8.501  -5.977   3.957  0.00  0.00    +0.000 A 
ATOM      9  C   UNL     1       8.400  -4.155   5.550  0.00  0.00    +0.000 A 
ATOM     10  C   UNL     1       8.981  -6.809   4.990  0.00  0.00    +0.000 A 
ATOM     11  C   UNL     1       8.908  -4.988   6.553  0.00  0.00    +0.000 A 
ATOM     12  C   UNL     1       9.190  -6.318   6.275  0.00  0.00    +0.000 A 
BRANCH   8  17
ATOM     13  N   UNL     1       7.867  -7.835   2.439  0.00  0.00    +0.000 NA
ATOM     14  N   UNL     1       8.743  -5.996   1.458  0.00  0.00    +0.000 NA
ATOM     15  N   UNL     1       7.915  -7.898   1.101  0.00  0.00    +0.000 N 
ATOM     16  N   UNL     1       8.415  -6.827   0.479  0.00  0.00    +0.000 NA
ATOM     17  C   UNL     1       8.373  -6.601   2.639  0.00  0.00    +0.000 A 
ATOM     18  H   UNL     1       7.593  -8.712   0.584  0.00  0.00    +0.000 HD
ENDBRANCH   8  17
ENDBRANCH   4   7
BRANCH   1  19
ATOM     19  C   UNL     1       6.330  -1.185  -0.136  0.00  0.00    +0.000 C 
BRANCH  19  21
ATOM     20 CL   UNL     1       1.208  -0.143   0.359  0.00  0.00    +0.000 Cl
ATOM     21  N   UNL     1       5.038  -0.516   0.018  0.00  0.00    +0.000 N 
ATOM     22  N   UNL     1       3.554   1.137   0.152  0.00  0.00    +0.000 NA
ATOM     23  C   UNL     1       4.824   0.852  -0.052  0.00  0.00    +0.000 A 
ATOM     24  C   UNL     1       3.780  -1.105   0.069  0.00  0.00    +0.000 A 
ATOM     25  C   UNL     1       2.897  -0.054   0.212  0.00  0.00    +0.000 A 
BRANCH  23  26
ATOM     26  C   UNL     1       5.840   1.895  -0.394  0.00  0.00    +0.000 C 
BRANCH  26  27
ATOM     27  C   UNL     1       5.953   2.128  -1.909  0.00  0.00    +0.000 C 
BRANCH  27  28
ATOM     28  C   UNL     1       4.650   2.616  -2.558  0.00  0.00    +0.000 C 
ATOM     29  C   UNL     1       4.828   2.891  -4.044  0.00  0.00    +0.000 C 
ENDBRANCH  27  28
ENDBRANCH  26  27
ENDBRANCH  23  26
BRANCH  24  30
ATOM     30  C   UNL     1       3.465  -2.546  -0.016  0.00  0.00    +0.000 C 
BRANCH  30  31
ATOM     31  O   UNL     1       4.065  -3.044  -1.204  0.00  0.00    +0.000 OA
ATOM     32  H   UNL     1       3.675  -2.538  -1.937  0.00  0.00    +0.000 HD
ENDBRANCH  30  31
ENDBRANCH  24  30
ENDBRANCH  19  21
ENDBRANCH   1  19
TORSDOF 9
