REMARK  Name = 5280443
REMARK  4 active torsions:
REMARK  status: ('A' for Active; 'I' for Inactive)
REMARK    1  A    between atoms: O_2  and  C_12
REMARK    2  A    between atoms: O_4  and  C_14
REMARK    3  A    between atoms: O_5  and  C_20
REMARK    4  A    between atoms: C_8  and  C_9
REMARK                            x       y       z     vdW  Elec       q    Type
REMARK                         _______ _______ _______ _____ _____    ______ ____
ROOT
ATOM      1  O   UNL     1      -0.799  -2.126   0.054  0.00  0.00    +0.000 OA
ATOM      2  O   UNL     1      -2.403   1.617   0.025  0.00  0.00    +0.000 OA
ATOM      3  C   UNL     1      -0.407   0.286   0.019  0.00  0.00    +0.000 A 
ATOM      4  C   UNL     1       0.046  -1.038   0.040  0.00  0.00    +0.000 A 
ATOM      5  C   UNL     1      -2.159  -1.891  -0.038  0.00  0.00    +0.000 A 
ATOM      6  C   UNL     1      -1.871   0.518   0.004  0.00  0.00    +0.000 A 
ATOM      7  C   UNL     1      -2.721  -0.682  -0.057  0.00  0.00    +0.000 A 
ATOM      8  C   UNL     1       0.526   1.334  -0.000  0.00  0.00    +0.000 A 
ATOM      9  C   UNL     1       1.417  -1.311   0.039  0.00  0.00    +0.000 A 
ATOM     10  C   UNL     1       2.328  -0.259   0.008  0.00  0.00    +0.000 A 
ATOM     11  C   UNL     1       1.897   1.064  -0.009  0.00  0.00    +0.000 A 
ENDROOT
BRANCH   5  12
ATOM     12  C   UNL     1      -2.994  -3.099  -0.108  0.00  0.00    +0.000 A 
ATOM     13  C   UNL     1      -3.340  -3.662  -1.345  0.00  0.00    +0.000 A 
ATOM     14  C   UNL     1      -3.448  -3.710   1.068  0.00  0.00    +0.000 A 
ATOM     15  C   UNL     1      -4.090  -4.843  -1.403  0.00  0.00    +0.000 A 
ATOM     16  C   UNL     1      -4.197  -4.888   1.011  0.00  0.00    +0.000 A 
ATOM     17  C   UNL     1      -4.505  -5.449  -0.221  0.00  0.00    +0.000 A 
BRANCH  17  18
ATOM     18  O   UNL     1      -5.218  -6.611  -0.225  0.00  0.00    +0.000 OA
ATOM     19  H   UNL     1      -5.334  -6.904  -1.143  0.00  0.00    +0.000 HD
ENDBRANCH  17  18
ENDBRANCH   5  12
BRANCH   8  20
ATOM     20  O   UNL     1       0.113   2.636  -0.019  0.00  0.00    +0.000 OA
ATOM     21  H   UNL     1       0.868   3.243  -0.006  0.00  0.00    +0.000 HD
ENDBRANCH   8  20
BRANCH  10  22
ATOM     22  O   UNL     1       3.656  -0.569  -0.009  0.00  0.00    +0.000 OA
ATOM     23  H   UNL     1       4.179   0.248  -0.059  0.00  0.00    +0.000 HD
ENDBRANCH  10  22
TORSDOF 4
