REMARK  Name = 689043
REMARK  5 active torsions:
REMARK  status: ('A' for Active; 'I' for Inactive)
REMARK    1  A    between atoms: O_1  and  C_8
REMARK    2  A    between atoms: O_2  and  C_9
REMARK    3  A    between atoms: O_3  and  C_13
REMARK    4  A    between atoms: C_5  and  C_11
REMARK    5  A    between atoms: C_12  and  C_13
REMARK                            x       y       z     vdW  Elec       q    Type
REMARK                         _______ _______ _______ _____ _____    ______ ____
ROOT
ATOM      1  C   UNL     1      -1.999  -0.600  -0.031  0.00  0.00    +0.000 A 
ATOM      2  C   UNL     1      -0.811  -1.351  -0.017  0.00  0.00    +0.000 A 
ATOM      3  C   UNL     1      -1.916   0.803   0.002  0.00  0.00    +0.000 A 
ATOM      4  C   UNL     1       0.420  -0.699  -0.007  0.00  0.00    +0.000 A 
ATOM      5  C   UNL     1       0.481   0.691   0.002  0.00  0.00    +0.000 A 
ATOM      6  C   UNL     1      -0.677   1.449   0.012  0.00  0.00    +0.000 A 
ENDROOT
BRANCH   4   7
ATOM      7  O   UNL     1       1.605  -1.383  -0.005  0.00  0.00    +0.000 OA
ATOM      8  H   UNL     1       1.409  -2.336   0.001  0.00  0.00    +0.000 HD
ENDBRANCH   4   7
BRANCH   5   9
ATOM      9  O   UNL     1       1.690   1.324   0.006  0.00  0.00    +0.000 OA
ATOM     10  H   UNL     1       2.347   0.600  -0.003  0.00  0.00    +0.000 HD
ENDBRANCH   5   9
BRANCH   1  11
ATOM     11  C   UNL     1      -3.290  -1.309  -0.034  0.00  0.00    +0.000 C 
ATOM     12  C   UNL     1      -4.415  -0.829  -0.590  0.00  0.00    +0.000 C 
BRANCH  12  14
ATOM     13  O   UNL     1      -5.746  -2.738  -0.045  0.00  0.00    +0.000 OA
ATOM     14  C   UNL     1      -5.652  -1.634  -0.550  0.00  0.00    +0.000 C 
BRANCH  14  15
ATOM     15  O   UNL     1      -6.684  -1.002  -1.146  0.00  0.00    +0.000 OA
ATOM     16  H   UNL     1      -6.488  -0.124  -1.516  0.00  0.00    +0.000 HD
ENDBRANCH  14  15
ENDBRANCH  12  14
ENDBRANCH   1  11
TORSDOF 5
