REMARK  Name = 5280863
REMARK  5 active torsions:
REMARK  status: ('A' for Active; 'I' for Inactive)
REMARK    1  A    between atoms: O_2  and  C_11
REMARK    2  A    between atoms: O_3  and  C_13
REMARK    3  A    between atoms: O_5  and  C_15
REMARK    4  A    between atoms: O_6  and  C_21
REMARK    5  A    between atoms: C_9  and  C_12
REMARK                            x       y       z     vdW  Elec       q    Type
REMARK                         _______ _______ _______ _____ _____    ______ ____
ROOT
ATOM      1  O   UNL     1       0.601   2.054   0.013  0.00  0.00    +0.000 OA
ATOM      2  O   UNL     1       1.946  -1.787   0.113  0.00  0.00    +0.000 OA
ATOM      3  C   UNL     1       0.072  -0.325   0.021  0.00  0.00    +0.000 A 
ATOM      4  C   UNL     1      -0.303   1.019   0.021  0.00  0.00    +0.000 A 
ATOM      5  C   UNL     1       1.950   1.756  -0.046  0.00  0.00    +0.000 A 
ATOM      6  C   UNL     1       1.519  -0.643   0.042  0.00  0.00    +0.000 A 
ATOM      7  C   UNL     1       2.464   0.512  -0.022  0.00  0.00    +0.000 A 
ATOM      8  C   UNL     1      -0.927  -1.312  -0.001  0.00  0.00    +0.000 A 
ATOM      9  C   UNL     1      -1.656   1.376   0.015  0.00  0.00    +0.000 A 
ATOM     10  C   UNL     1      -2.629   0.384  -0.007  0.00  0.00    +0.000 A 
ATOM     11  C   UNL     1      -2.280  -0.961  -0.016  0.00  0.00    +0.000 A 
ENDROOT
BRANCH   5  12
ATOM     12  C   UNL     1       2.795   2.959  -0.138  0.00  0.00    +0.000 A 
ATOM     13  C   UNL     1       3.158   3.483  -1.388  0.00  0.00    +0.000 A 
ATOM     14  C   UNL     1       3.228   3.607   1.026  0.00  0.00    +0.000 A 
ATOM     15  C   UNL     1       3.906   4.663  -1.473  0.00  0.00    +0.000 A 
ATOM     16  C   UNL     1       3.971   4.787   0.940  0.00  0.00    +0.000 A 
ATOM     17  C   UNL     1       4.293   5.312  -0.306  0.00  0.00    +0.000 A 
BRANCH  17  18
ATOM     18  O   UNL     1       4.991   6.483  -0.337  0.00  0.00    +0.000 OA
ATOM     19  H   UNL     1       5.127   6.746  -1.262  0.00  0.00    +0.000 HD
ENDBRANCH  17  18
ENDBRANCH   5  12
BRANCH   7  20
ATOM     20  O   UNL     1       3.818   0.224  -0.049  0.00  0.00    +0.000 OA
ATOM     21  H   UNL     1       4.324   1.049   0.023  0.00  0.00    +0.000 HD
ENDBRANCH   7  20
BRANCH   8  22
ATOM     22  O   UNL     1      -0.600  -2.639  -0.020  0.00  0.00    +0.000 OA
ATOM     23  H   UNL     1      -1.392  -3.197  -0.020  0.00  0.00    +0.000 HD
ENDBRANCH   8  22
BRANCH  10  24
ATOM     24  O   UNL     1      -3.938   0.774  -0.026  0.00  0.00    +0.000 OA
ATOM     25  H   UNL     1      -4.509  -0.011  -0.063  0.00  0.00    +0.000 HD
ENDBRANCH  10  24
TORSDOF 5
