REMARK  Name = 
REMARK  11 active torsions:
REMARK  status: ('A' for Active; 'I' for Inactive)
REMARK    1  A    between atoms: C_1  and  O_2
REMARK    2  A    between atoms: O_2  and  C_3
REMARK    3  A    between atoms: C_4  and  O_26
REMARK    4  A    between atoms: C_7  and  C_9
REMARK    5  A    between atoms: C_9  and  C_10
REMARK    6  A    between atoms: C_13  and  C_17
REMARK    7  A    between atoms: C_14  and  C_15
REMARK    8  A    between atoms: C_15  and  O_16
REMARK    9  A    between atoms: C_19  and  O_24
REMARK   10  A    between atoms: C_20  and  O_23
REMARK   11  A    between atoms: O_24  and  C_25
REMARK                            x       y       z     vdW  Elec       q    Type
REMARK                         _______ _______ _______ _____ _____    ______ ____
ROOT
ATOM      1  C   UNL     1       7.408   3.624  -0.274  0.00  0.00    +0.000 C 
ATOM      2  C   UNL     1       6.953   4.363   0.980  0.00  0.00    +0.000 C 
ATOM      3  O   UNL     1       7.217   5.759   0.779  0.00  0.00    +0.000 OA
ATOM      4  C   UNL     1       7.421   6.006  -0.624  0.00  0.00    +0.000 C 
ATOM      5  C   UNL     1       7.121   4.687  -1.345  0.00  0.00    +0.000 C 
ENDROOT
BRANCH   4   6
ATOM      6  C   UNL     1       6.547   7.151  -1.100  0.00  0.00    +0.000 A 
ATOM      7  C   UNL     1       5.277   7.392  -0.546  0.00  0.00    +0.000 A 
ATOM      8  C   UNL     1       4.438   8.425  -1.003  0.00  0.00    +0.000 A 
ATOM      9  C   UNL     1       4.893   9.219  -2.057  0.00  0.00    +0.000 A 
ATOM     10  C   UNL     1       6.151   8.993  -2.624  0.00  0.00    +0.000 A 
ATOM     11  C   UNL     1       6.976   7.974  -2.146  0.00  0.00    +0.000 A 
BRANCH   9  12
ATOM     12  O   UNL     1       4.199  10.246  -2.630  0.00  0.00    +0.000 OA
ATOM     13  H   UNL     1       3.751  10.731  -1.924  0.00  0.00    +0.000 HD
ENDBRANCH   9  12
BRANCH   8  14
ATOM     14  O   UNL     1       3.257   8.462  -0.320  0.00  0.00    +0.000 OA
ATOM     15  C   UNL     1       2.250   9.399  -0.651  0.00  0.00    +0.000 C 
ENDBRANCH   8  14
ENDBRANCH   4   6
BRANCH   1  16
ATOM     16  C   UNL     1       8.880   3.174  -0.190  0.00  0.00    +0.000 C 
BRANCH  16  21
ATOM     17  C   UNL     1       8.823  -0.012   1.950  0.00  0.00    +0.000 A 
ATOM     18  C   UNL     1       9.789   0.305   2.906  0.00  0.00    +0.000 A 
ATOM     19  C   UNL     1      10.427   1.542   2.889  0.00  0.00    +0.000 A 
ATOM     20  C   UNL     1      10.127   2.470   1.891  0.00  0.00    +0.000 A 
ATOM     21  C   UNL     1       9.170   2.174   0.911  0.00  0.00    +0.000 A 
ATOM     22  C   UNL     1       8.530   0.923   0.949  0.00  0.00    +0.000 A 
BRANCH  17  24
ATOM     23  C   UNL     1       7.651  -1.766   3.032  0.00  0.00    +0.000 C 
ATOM     24  O   UNL     1       8.189  -1.220   1.830  0.00  0.00    +0.000 OA
ENDBRANCH  17  24
BRANCH  18  25
ATOM     25  O   UNL     1      10.226  -0.586   3.845  0.00  0.00    +0.000 OA
ATOM     26  H   UNL     1      10.178  -1.458   3.426  0.00  0.00    +0.000 HD
ENDBRANCH  18  25
ENDBRANCH  16  21
ENDBRANCH   1  16
BRANCH   5  27
ATOM     27  C   UNL     1       7.868   4.553  -2.665  0.00  0.00    +0.000 C 
BRANCH  27  28
ATOM     28  O   UNL     1       7.590   3.295  -3.264  0.00  0.00    +0.000 OA
ATOM     29  H   UNL     1       6.685   3.336  -3.620  0.00  0.00    +0.000 HD
ENDBRANCH  27  28
ENDBRANCH   5  27
TORSDOF 9
