REMARK  Name = 5280445
REMARK  5 active torsions:
REMARK  status: ('A' for Active; 'I' for Inactive)
REMARK    1  A    between atoms: O_2  and  C_13
REMARK    2  A    between atoms: O_4  and  C_16
REMARK    3  A    between atoms: O_5  and  C_19
REMARK    4  A    between atoms: O_6  and  C_21
REMARK    5  A    between atoms: C_9  and  C_10
REMARK                            x       y       z     vdW  Elec       q    Type
REMARK                         _______ _______ _______ _____ _____    ______ ____
ROOT
ATOM      1  O   UNL     1      -0.820  -2.141   0.038  0.00  0.00    +0.000 OA
ATOM      2  O   UNL     1      -2.429   1.603   0.029  0.00  0.00    +0.000 OA
ATOM      3  C   UNL     1      -0.431   0.273   0.012  0.00  0.00    +0.000 A 
ATOM      4  C   UNL     1       0.021  -1.052   0.031  0.00  0.00    +0.000 A 
ATOM      5  C   UNL     1      -2.177  -1.907  -0.026  0.00  0.00    +0.000 A 
ATOM      6  C   UNL     1      -1.896   0.502   0.004  0.00  0.00    +0.000 A 
ATOM      7  C   UNL     1      -2.747  -0.698  -0.043  0.00  0.00    +0.000 A 
ATOM      8  C   UNL     1       0.506   1.316  -0.005  0.00  0.00    +0.000 A 
ATOM      9  C   UNL     1       1.390  -1.330   0.037  0.00  0.00    +0.000 A 
ATOM     10  C   UNL     1       2.304  -0.283   0.015  0.00  0.00    +0.000 A 
ATOM     11  C   UNL     1       1.877   1.041  -0.006  0.00  0.00    +0.000 A 
ENDROOT
BRANCH   5  12
ATOM     12  C   UNL     1      -3.015  -3.109  -0.098  0.00  0.00    +0.000 A 
ATOM     13  C   UNL     1      -3.514  -3.702   1.072  0.00  0.00    +0.000 A 
ATOM     14  C   UNL     1      -3.371  -3.633  -1.352  0.00  0.00    +0.000 A 
ATOM     15  C   UNL     1      -4.369  -4.796   0.970  0.00  0.00    +0.000 A 
ATOM     16  C   UNL     1      -4.228  -4.732  -1.443  0.00  0.00    +0.000 A 
ATOM     17  C   UNL     1      -4.724  -5.300  -0.279  0.00  0.00    +0.000 A 
BRANCH  15  18
ATOM     18  O   UNL     1      -4.900  -5.407   2.073  0.00  0.00    +0.000 OA
ATOM     19  H   UNL     1      -4.564  -4.954   2.865  0.00  0.00    +0.000 HD
ENDBRANCH  15  18
BRANCH  17  20
ATOM     20  O   UNL     1      -5.578  -6.362  -0.369  0.00  0.00    +0.000 OA
ATOM     21  H   UNL     1      -5.803  -6.576   0.558  0.00  0.00    +0.000 HD
ENDBRANCH  17  20
ENDBRANCH   5  12
BRANCH   8  22
ATOM     22  O   UNL     1       0.099   2.620  -0.027  0.00  0.00    +0.000 OA
ATOM     23  H   UNL     1       0.859   3.222  -0.017  0.00  0.00    +0.000 HD
ENDBRANCH   8  22
BRANCH  10  24
ATOM     24  O   UNL     1       3.630  -0.601   0.010  0.00  0.00    +0.000 OA
ATOM     25  H   UNL     1       4.158   0.212  -0.037  0.00  0.00    +0.000 HD
ENDBRANCH  10  24
TORSDOF 5
