REMARK  Name = 5281672
REMARK  7 active torsions:
REMARK  status: ('A' for Active; 'I' for Inactive)
REMARK    1  A    between atoms: O_2  and  C_13
REMARK    2  A    between atoms: O_3  and  C_15
REMARK    3  A    between atoms: O_5  and  C_19
REMARK    4  A    between atoms: O_6  and  C_21
REMARK    5  A    between atoms: O_7  and  C_22
REMARK    6  A    between atoms: O_8  and  C_23
REMARK    7  A    between atoms: C_10  and  C_12
REMARK                            x       y       z     vdW  Elec       q    Type
REMARK                         _______ _______ _______ _____ _____    ______ ____
ROOT
ATOM      1  O   UNL     1       0.624   2.065   0.007  0.00  0.00    +0.000 OA
ATOM      2  O   UNL     1       1.966  -1.782   0.171  0.00  0.00    +0.000 OA
ATOM      3  C   UNL     1       0.094  -0.317   0.034  0.00  0.00    +0.000 A 
ATOM      4  C   UNL     1       1.972   1.763  -0.027  0.00  0.00    +0.000 A 
ATOM      5  C   UNL     1      -0.278   1.031   0.017  0.00  0.00    +0.000 A 
ATOM      6  C   UNL     1       2.483   0.517   0.011  0.00  0.00    +0.000 A 
ATOM      7  C   UNL     1       1.536  -0.637   0.083  0.00  0.00    +0.000 A 
ATOM      8  C   UNL     1      -0.907  -1.301   0.014  0.00  0.00    +0.000 A 
ATOM      9  C   UNL     1      -1.629   1.392  -0.002  0.00  0.00    +0.000 A 
ATOM     10  C   UNL     1      -2.606   0.406  -0.015  0.00  0.00    +0.000 A 
ATOM     11  C   UNL     1      -2.260  -0.942  -0.012  0.00  0.00    +0.000 A 
ENDROOT
BRANCH   4  12
ATOM     12  C   UNL     1       2.839   2.944  -0.147  0.00  0.00    +0.000 A 
ATOM     13  C   UNL     1       3.145   3.449  -1.416  0.00  0.00    +0.000 A 
ATOM     14  C   UNL     1       3.419   3.526   0.992  0.00  0.00    +0.000 A 
ATOM     15  C   UNL     1       4.304   4.596   0.853  0.00  0.00    +0.000 A 
ATOM     16  C   UNL     1       4.033   4.514  -1.533  0.00  0.00    +0.000 A 
ATOM     17  C   UNL     1       4.616   5.090  -0.406  0.00  0.00    +0.000 A 
BRANCH  15  18
ATOM     18  O   UNL     1       4.858   5.109   1.991  0.00  0.00    +0.000 OA
ATOM     19  H   UNL     1       5.015   6.060   1.861  0.00  0.00    +0.000 HD
ENDBRANCH  15  18
BRANCH  16  20
ATOM     20  O   UNL     1       4.360   4.963  -2.780  0.00  0.00    +0.000 OA
ATOM     21  H   UNL     1       5.004   5.684  -2.631  0.00  0.00    +0.000 HD
ENDBRANCH  16  20
BRANCH  17  22
ATOM     22  O   UNL     1       5.505   6.112  -0.610  0.00  0.00    +0.000 OA
ATOM     23  H   UNL     1       6.108   6.139   0.154  0.00  0.00    +0.000 HD
ENDBRANCH  17  22
ENDBRANCH   4  12
BRANCH   6  24
ATOM     24  O   UNL     1       3.842   0.230  -0.021  0.00  0.00    +0.000 OA
ATOM     25  H   UNL     1       4.346   1.056  -0.070  0.00  0.00    +0.000 HD
ENDBRANCH   6  24
BRANCH   8  26
ATOM     26  O   UNL     1      -0.588  -2.627   0.009  0.00  0.00    +0.000 OA
ATOM     27  H   UNL     1      -1.383  -3.183  -0.004  0.00  0.00    +0.000 HD
ENDBRANCH   8  26
BRANCH  10  28
ATOM     28  O   UNL     1      -3.910   0.802  -0.033  0.00  0.00    +0.000 OA
ATOM     29  H   UNL     1      -4.488   0.020  -0.044  0.00  0.00    +0.000 HD
ENDBRANCH  10  28
TORSDOF 7
