REMARK  Name = 
REMARK  7 active torsions:
REMARK  status: ('A' for Active; 'I' for Inactive)
REMARK    1  A    between atoms: C_3  and  O_20
REMARK    2  A    between atoms: C_6  and  C_7
REMARK    3  A    between atoms: C_8  and  C_9
REMARK    4  A    between atoms: C_9  and  C_11
REMARK    5  A    between atoms: C_12  and  O_19
REMARK    6  A    between atoms: C_14  and  O_18
REMARK    7  A    between atoms: C_16  and  O_17
REMARK                            x       y       z     vdW  Elec       q    Type
REMARK                         _______ _______ _______ _____ _____    ______ ____
ROOT
ATOM      1  C   UNL     1      -5.616  -0.964  -0.207  0.00  0.00    +0.000 C 
ATOM      2  O   UNL     1      -6.233  -0.009   0.238  0.00  0.00    +0.000 OA
ENDROOT
BRANCH   1   3
ATOM      3  C   UNL     1      -6.351  -2.119  -0.799  0.00  0.00    +0.000 A 
ATOM      4  C   UNL     1      -7.652  -2.410  -0.353  0.00  0.00    +0.000 A 
ATOM      5  C   UNL     1      -8.395  -3.440  -0.937  0.00  0.00    +0.000 A 
ATOM      6  C   UNL     1      -7.832  -4.188  -1.964  0.00  0.00    +0.000 A 
ATOM      7  C   UNL     1      -6.545  -3.925  -2.418  0.00  0.00    +0.000 A 
ATOM      8  C   UNL     1      -5.810  -2.894  -1.838  0.00  0.00    +0.000 A 
BRANCH   8   9
ATOM      9  O   UNL     1      -4.551  -2.644  -2.313  0.00  0.00    +0.000 OA
ATOM     10  H   UNL     1      -4.325  -3.284  -3.011  0.00  0.00    +0.000 HD
ENDBRANCH   8   9
BRANCH   6  11
ATOM     11  O   UNL     1      -8.510  -5.212  -2.556  0.00  0.00    +0.000 OA
ATOM     12  H   UNL     1      -9.377  -5.302  -2.125  0.00  0.00    +0.000 HD
ENDBRANCH   6  11
BRANCH   4  13
ATOM     13  O   UNL     1      -8.258  -1.756   0.684  0.00  0.00    +0.000 OA
ATOM     14  H   UNL     1      -7.621  -1.118   1.069  0.00  0.00    +0.000 HD
ENDBRANCH   4  13
ENDBRANCH   1   3
BRANCH   1  16
ATOM     15  C   UNL     1      -3.366   0.025  -0.025  0.00  0.00    +0.000 C 
ATOM     16  C   UNL     1      -4.137  -1.078  -0.081  0.00  0.00    +0.000 C 
BRANCH  15  22
ATOM     17  C   UNL     1      -1.169  -1.066   0.562  0.00  0.00    +0.000 A 
ATOM     18  C   UNL     1       0.230  -1.068   0.561  0.00  0.00    +0.000 A 
ATOM     19  C   UNL     1       0.915  -0.009  -0.021  0.00  0.00    +0.000 A 
ATOM     20  C   UNL     1       0.223   1.049  -0.594  0.00  0.00    +0.000 A 
ATOM     21  C   UNL     1      -1.177   1.048  -0.589  0.00  0.00    +0.000 A 
ATOM     22  C   UNL     1      -1.894  -0.015  -0.020  0.00  0.00    +0.000 A 
BRANCH  19  23
ATOM     23  O   UNL     1       2.278   0.021  -0.050  0.00  0.00    +0.000 OA
ATOM     24  H   UNL     1       2.614  -0.786   0.362  0.00  0.00    +0.000 HD
ENDBRANCH  19  23
ENDBRANCH  15  22
ENDBRANCH   1  16
TORSDOF 7
