REMARK  Name = 189609
REMARK  3 active torsions:
REMARK  status: ('A' for Active; 'I' for Inactive)
REMARK    1  A    between atoms: O_4  and  C_9
REMARK    2  A    between atoms: O_4  and  C_19
REMARK    3  A    between atoms: C_13  and  C_16
REMARK                            x       y       z     vdW  Elec       q    Type
REMARK                         _______ _______ _______ _____ _____    ______ ____
ROOT
ATOM      1  O   UNL     1      -1.717  -1.875   0.009  0.00  0.00    +0.000 OA
ATOM      2  O   UNL     1       2.671   1.369   0.038  0.00  0.00    +0.000 OA
ATOM      3  O   UNL     1       2.951  -1.015   0.016  0.00  0.00    +0.000 OA
ATOM      4  O   UNL     1      -2.777   2.023  -0.188  0.00  0.00    +0.000 OA
ATOM      5  C   UNL     1      -0.918   0.474   0.001  0.00  0.00    +0.000 A 
ATOM      6  C   UNL     1      -0.704  -0.938   0.008  0.00  0.00    +0.000 A 
ATOM      7  C   UNL     1       1.466   0.715   0.022  0.00  0.00    +0.000 A 
ATOM      8  C   UNL     1       0.207   1.333   0.016  0.00  0.00    +0.000 A 
ATOM      9  C   UNL     1       1.643  -0.648   0.013  0.00  0.00    +0.000 A 
ATOM     10  C   UNL     1       0.577  -1.502   0.006  0.00  0.00    +0.000 A 
ATOM     11  C   UNL     1      -2.353   0.885  -0.043  0.00  0.00    +0.000 A 
ATOM     12  C   UNL     1      -3.016  -1.434   0.041  0.00  0.00    +0.000 A 
ATOM     13  C   UNL     1      -3.380  -0.153   0.043  0.00  0.00    +0.000 A 
ATOM     14  C   UNL     1       3.597   0.269   0.091  0.00  0.00    +0.000 C 
ENDROOT
BRANCH  12  15
ATOM     15  C   UNL     1      -4.040  -2.475   0.001  0.00  0.00    +0.000 A 
ATOM     16  C   UNL     1      -4.507  -2.941  -1.237  0.00  0.00    +0.000 A 
ATOM     17  C   UNL     1      -4.612  -2.965   1.179  0.00  0.00    +0.000 A 
ATOM     18  C   UNL     1      -5.522  -3.895  -1.293  0.00  0.00    +0.000 A 
ATOM     19  C   UNL     1      -5.623  -3.924   1.121  0.00  0.00    +0.000 A 
ATOM     20  C   UNL     1      -6.077  -4.391  -0.113  0.00  0.00    +0.000 A 
ENDBRANCH  12  15
BRANCH   8  21
ATOM     21  O   UNL     1       0.345   2.688   0.035  0.00  0.00    +0.000 OA
ATOM     22  C   UNL     1      -0.755   3.570   0.043  0.00  0.00    +0.000 C 
ENDBRANCH   8  21
TORSDOF 2
