REMARK  Name = 5280343
REMARK  6 active torsions:
REMARK  status: ('A' for Active; 'I' for Inactive)
REMARK    1  A    between atoms: O_2  and  C_12
REMARK    2  A    between atoms: O_3  and  C_14
REMARK    3  A    between atoms: O_5  and  C_16
REMARK    4  A    between atoms: O_6  and  C_20
REMARK    5  A    between atoms: O_7  and  C_22
REMARK    6  A    between atoms: C_10  and  C_11
REMARK                            x       y       z     vdW  Elec       q    Type
REMARK                         _______ _______ _______ _____ _____    ______ ____
ROOT
ATOM      1  O   UNL     1       0.612   2.076   0.020  0.00  0.00    +0.000 OA
ATOM      2  O   UNL     1       1.968  -1.768   0.135  0.00  0.00    +0.000 OA
ATOM      3  C   UNL     1       0.089  -0.307   0.028  0.00  0.00    +0.000 A 
ATOM      4  C   UNL     1      -0.287   1.038   0.022  0.00  0.00    +0.000 A 
ATOM      5  C   UNL     1       1.959   1.777  -0.023  0.00  0.00    +0.000 A 
ATOM      6  C   UNL     1       2.477   0.536   0.006  0.00  0.00    +0.000 A 
ATOM      7  C   UNL     1       1.537  -0.623   0.063  0.00  0.00    +0.000 A 
ATOM      8  C   UNL     1      -0.910  -1.295   0.002  0.00  0.00    +0.000 A 
ATOM      9  C   UNL     1      -1.639   1.394   0.012  0.00  0.00    +0.000 A 
ATOM     10  C   UNL     1      -2.613   0.403  -0.008  0.00  0.00    +0.000 A 
ATOM     11  C   UNL     1      -2.262  -0.942  -0.016  0.00  0.00    +0.000 A 
ENDROOT
BRANCH   5  12
ATOM     12  C   UNL     1       2.821   2.965  -0.133  0.00  0.00    +0.000 A 
ATOM     13  C   UNL     1       3.333   3.591   1.014  0.00  0.00    +0.000 A 
ATOM     14  C   UNL     1       3.207   3.419  -1.406  0.00  0.00    +0.000 A 
ATOM     15  C   UNL     1       4.232   4.643   0.871  0.00  0.00    +0.000 A 
ATOM     16  C   UNL     1       4.109   4.476  -1.538  0.00  0.00    +0.000 A 
ATOM     17  C   UNL     1       4.620   5.074  -0.396  0.00  0.00    +0.000 A 
BRANCH  15  18
ATOM     18  O   UNL     1       4.782   5.280   1.949  0.00  0.00    +0.000 OA
ATOM     19  H   UNL     1       4.404   4.899   2.760  0.00  0.00    +0.000 HD
ENDBRANCH  15  18
BRANCH  17  20
ATOM     20  O   UNL     1       5.524   6.089  -0.527  0.00  0.00    +0.000 OA
ATOM     21  H   UNL     1       5.751   6.340   0.391  0.00  0.00    +0.000 HD
ENDBRANCH  17  20
ENDBRANCH   5  12
BRANCH   6  22
ATOM     22  O   UNL     1       3.834   0.254  -0.022  0.00  0.00    +0.000 OA
ATOM     23  H   UNL     1       4.341   1.081  -0.056  0.00  0.00    +0.000 HD
ENDBRANCH   6  22
BRANCH   8  24
ATOM     24  O   UNL     1      -0.582  -2.621  -0.014  0.00  0.00    +0.000 OA
ATOM     25  H   UNL     1      -1.375  -3.179  -0.019  0.00  0.00    +0.000 HD
ENDBRANCH   8  24
BRANCH  10  26
ATOM     26  O   UNL     1      -3.919   0.795  -0.025  0.00  0.00    +0.000 OA
ATOM     27  H   UNL     1      -4.493   0.010  -0.051  0.00  0.00    +0.000 HD
ENDBRANCH  10  26
TORSDOF 6
