REMARK  Name = 5316833
REMARK  11 active torsions:
REMARK  status: ('A' for Active; 'I' for Inactive)
REMARK    1  A    between atoms: O_2  and  C_13
REMARK    2  A    between atoms: O_2  and  C_24
REMARK    3  A    between atoms: O_3  and  C_17
REMARK    4  A    between atoms: O_3  and  C_25
REMARK    5  A    between atoms: O_4  and  C_14
REMARK    6  A    between atoms: O_5  and  C_19
REMARK    7  A    between atoms: O_5  and  C_26
REMARK    8  A    between atoms: O_6  and  C_18
REMARK    9  A    between atoms: O_8  and  C_21
REMARK   10  A    between atoms: O_8  and  C_27
REMARK   11  A    between atoms: C_11  and  C_12
REMARK                            x       y       z     vdW  Elec       q    Type
REMARK                         _______ _______ _______ _____ _____    ______ ____
ROOT
ATOM      1  O   UNL     1      -0.765  -2.043  -0.411  0.00  0.00    +0.000 OA
ATOM      2  O   UNL     1      -2.315   1.697  -0.348  0.00  0.00    +0.000 OA
ATOM      3  C   UNL     1      -0.340   0.341  -0.242  0.00  0.00    +0.000 A 
ATOM      4  C   UNL     1       0.106  -0.981  -0.271  0.00  0.00    +0.000 A 
ATOM      5  C   UNL     1      -2.116  -1.808  -0.285  0.00  0.00    +0.000 A 
ATOM      6  C   UNL     1       1.477  -1.293  -0.137  0.00  0.00    +0.000 A 
ATOM      7  C   UNL     1       0.603   1.364  -0.136  0.00  0.00    +0.000 A 
ATOM      8  C   UNL     1      -1.802   0.593  -0.274  0.00  0.00    +0.000 A 
ATOM      9  C   UNL     1      -2.671  -0.592  -0.180  0.00  0.00    +0.000 A 
ATOM     10  C   UNL     1       1.980   1.091  -0.015  0.00  0.00    +0.000 A 
ATOM     11  C   UNL     1       2.406  -0.245   0.015  0.00  0.00    +0.000 A 
ENDROOT
BRANCH   5  12
ATOM     12  C   UNL     1      -2.929  -3.029  -0.175  0.00  0.00    +0.000 A 
ATOM     13  C   UNL     1      -3.585  -3.701  -1.234  0.00  0.00    +0.000 A 
ATOM     14  C   UNL     1      -2.970  -3.573   1.128  0.00  0.00    +0.000 A 
ATOM     15  C   UNL     1      -4.288  -4.897  -0.944  0.00  0.00    +0.000 A 
ATOM     16  C   UNL     1      -3.645  -4.757   1.396  0.00  0.00    +0.000 A 
ATOM     17  C   UNL     1      -4.307  -5.406   0.365  0.00  0.00    +0.000 A 
BRANCH  13  18
ATOM     18  O   UNL     1      -3.501  -3.372  -2.561  0.00  0.00    +0.000 OA
ATOM     19  C   UNL     1      -3.402  -2.023  -2.979  0.00  0.00    +0.000 C 
ENDBRANCH  13  18
BRANCH  15  20
ATOM     20  O   UNL     1      -5.000  -5.707  -1.795  0.00  0.00    +0.000 OA
ATOM     21  C   UNL     1      -5.127  -5.349  -3.161  0.00  0.00    +0.000 C 
ENDBRANCH  15  20
ENDBRANCH   5  12
BRANCH   6  22
ATOM     22  O   UNL     1       1.737  -2.641  -0.162  0.00  0.00    +0.000 OA
ATOM     23  C   UNL     1       3.064  -3.114   0.004  0.00  0.00    +0.000 C 
ENDBRANCH   6  22
BRANCH  10  24
ATOM     24  O   UNL     1       2.727   2.240   0.079  0.00  0.00    +0.000 OA
ATOM     25  C   UNL     1       4.136   2.175   0.226  0.00  0.00    +0.000 C 
ENDBRANCH  10  24
BRANCH   7  26
ATOM     26  O   UNL     1       0.210   2.679  -0.116  0.00  0.00    +0.000 OA
ATOM     27  H   UNL     1       1.019   3.207   0.022  0.00  0.00    +0.000 HD
ENDBRANCH   7  26
BRANCH  11  28
ATOM     28  O   UNL     1       3.722  -0.538   0.237  0.00  0.00    +0.000 OA
ATOM     29  H   UNL     1       4.199  -0.304  -0.576  0.00  0.00    +0.000 HD
ENDBRANCH  11  28
TORSDOF 7
