REMARK  Name = 5281647
REMARK  10 active torsions:
REMARK  status: ('A' for Active; 'I' for Inactive)
REMARK    1  A    between atoms: O_2  and  C_12
REMARK    2  A    between atoms: O_3  and  C_13
REMARK    3  A    between atoms: O_4  and  C_15
REMARK    4  A    between atoms: O_5  and  C_18
REMARK    5  A    between atoms: O_6  and  C_19
REMARK    6  A    between atoms: O_8  and  C_20
REMARK    7  A    between atoms: O_10  and  C_29
REMARK    8  A    between atoms: O_11  and  C_30
REMARK    9  A    between atoms: C_14  and  C_17
REMARK   10  A    between atoms: C_16  and  C_18
REMARK                            x       y       z     vdW  Elec       q    Type
REMARK                         _______ _______ _______ _____ _____    ______ ____
ROOT
ATOM      1  O   UNL     1       5.633   4.313   1.797  0.00  0.00    +0.000 OA
ATOM      2  O   UNL     1       1.946   5.487   3.103  0.00  0.00    +0.000 OA
ATOM      3  C   UNL     1       2.301   2.189   0.294  0.00  0.00    +0.000 A 
ATOM      4  C   UNL     1       2.123   3.235   1.235  0.00  0.00    +0.000 A 
ATOM      5  C   UNL     1       3.627   1.969  -0.128  0.00  0.00    +0.000 A 
ATOM      6  C   UNL     1       3.205   3.981   1.743  0.00  0.00    +0.000 A 
ATOM      7  C   UNL     1       4.502   3.682   1.339  0.00  0.00    +0.000 A 
ATOM      8  C   UNL     1       4.708   2.682   0.396  0.00  0.00    +0.000 A 
ATOM      9  C   UNL     1       3.024   5.113   2.682  0.00  0.00    +0.000 A 
ATOM     10  C   UNL     1       4.238   5.820   3.108  0.00  0.00    +0.000 A 
ATOM     11  C   UNL     1       5.478   5.369   2.661  0.00  0.00    +0.000 A 
ATOM     12  C   UNL     1       4.136   6.926   3.952  0.00  0.00    +0.000 A 
ATOM     13  C   UNL     1       6.646   6.014   3.081  0.00  0.00    +0.000 A 
ATOM     14  C   UNL     1       5.296   7.565   4.353  0.00  0.00    +0.000 A 
ATOM     15  C   UNL     1       6.546   7.113   3.929  0.00  0.00    +0.000 A 
ENDROOT
BRANCH   3  19
ATOM     16  O   UNL     1      -0.107   1.864   0.300  0.00  0.00    +0.000 OA
ATOM     17  C   UNL     1       1.252  -0.142  -0.008  0.00  0.00    +0.000 C 
ATOM     18  C   UNL     1      -0.033  -0.894  -0.374  0.00  0.00    +0.000 C 
ATOM     19  C   UNL     1       1.123   1.378  -0.281  0.00  0.00    +0.000 C 
ATOM     20  C   UNL     1      -1.283  -0.257   0.228  0.00  0.00    +0.000 C 
ATOM     21  C   UNL     1      -1.307   1.224  -0.156  0.00  0.00    +0.000 C 
BRANCH  17  22
ATOM     22  O   UNL     1       2.310  -0.732  -0.789  0.00  0.00    +0.000 OA
ATOM     23  H   UNL     1       2.027  -1.649  -1.002  0.00  0.00    +0.000 HD
ENDBRANCH  17  22
BRANCH  18  24
ATOM     24  O   UNL     1       0.125  -2.264   0.024  0.00  0.00    +0.000 OA
ATOM     25  H   UNL     1       0.083  -2.310   0.997  0.00  0.00    +0.000 HD
ENDBRANCH  18  24
BRANCH  20  26
ATOM     26  O   UNL     1      -2.459  -0.926  -0.225  0.00  0.00    +0.000 OA
ATOM     27  H   UNL     1      -2.401  -1.061  -1.188  0.00  0.00    +0.000 HD
ENDBRANCH  20  26
BRANCH  21  28
ATOM     28  C   UNL     1      -2.502   1.934   0.500  0.00  0.00    +0.000 C 
BRANCH  28  29
ATOM     29  O   UNL     1      -2.533   3.306   0.109  0.00  0.00    +0.000 OA
ATOM     30  H   UNL     1      -1.784   3.753   0.543  0.00  0.00    +0.000 HD
ENDBRANCH  28  29
ENDBRANCH  21  28
ENDBRANCH   3  19
BRANCH   4  31
ATOM     31  O   UNL     1       0.874   3.572   1.686  0.00  0.00    +0.000 OA
ATOM     32  H   UNL     1       0.223   3.020   1.220  0.00  0.00    +0.000 HD
ENDBRANCH   4  31
BRANCH   5  33
ATOM     33  O   UNL     1       3.980   1.078  -1.101  0.00  0.00    +0.000 OA
ATOM     34  H   UNL     1       3.421   0.275  -1.025  0.00  0.00    +0.000 HD
ENDBRANCH   5  33
BRANCH  14  35
ATOM     35  O   UNL     1       5.199   8.648   5.178  0.00  0.00    +0.000 OA
ATOM     36  H   UNL     1       6.116   8.931   5.331  0.00  0.00    +0.000 HD
ENDBRANCH  14  35
BRANCH  15  37
ATOM     37  O   UNL     1       7.651   7.785   4.372  0.00  0.00    +0.000 OA
ATOM     38  H   UNL     1       8.443   7.362   3.995  0.00  0.00    +0.000 HD
ENDBRANCH  15  37
TORSDOF 10
