REMARK  Name = 370
REMARK  5 active torsions:
REMARK  status: ('A' for Active; 'I' for Inactive)
REMARK    1  A    between atoms: O_1  and  C_7
REMARK    2  A    between atoms: O_2  and  C_8
REMARK    3  A    between atoms: O_3  and  C_9
REMARK    4  A    between atoms: O_4  and  C_12
REMARK    5  A    between atoms: C_6  and  C_12
REMARK                            x       y       z     vdW  Elec       q    Type
REMARK                         _______ _______ _______ _____ _____    ______ ____
ROOT
ATOM      1  C   UNL     1       0.037  -2.118   0.020  0.00  0.00    +0.000 A 
ATOM      2  C   UNL     1       0.031   0.672   0.015  0.00  0.00    +0.000 A 
ATOM      3  C   UNL     1      -1.173  -0.020   0.062  0.00  0.00    +0.000 A 
ATOM      4  C   UNL     1       1.231  -0.031  -0.039  0.00  0.00    +0.000 A 
ATOM      5  C   UNL     1      -1.177  -1.413   0.070  0.00  0.00    +0.000 A 
ATOM      6  C   UNL     1       1.252  -1.421  -0.044  0.00  0.00    +0.000 A 
ENDROOT
BRANCH   2   7
ATOM      7  O   UNL     1       0.094   2.039   0.028  0.00  0.00    +0.000 OA
ATOM      8  H   UNL     1      -0.730   2.368   0.425  0.00  0.00    +0.000 HD
ENDBRANCH   2   7
BRANCH   3   9
ATOM      9  O   UNL     1      -2.373   0.626   0.105  0.00  0.00    +0.000 OA
ATOM     10  H   UNL     1      -2.322   1.403  -0.475  0.00  0.00    +0.000 HD
ENDBRANCH   3   9
BRANCH   4  11
ATOM     11  O   UNL     1       2.419   0.642  -0.074  0.00  0.00    +0.000 OA
ATOM     12  H   UNL     1       2.174   1.590  -0.076  0.00  0.00    +0.000 HD
ENDBRANCH   4  11
BRANCH   1  14
ATOM     13  O   UNL     1      -0.946  -4.205  -0.523  0.00  0.00    +0.000 OA
ATOM     14  C   UNL     1      -0.017  -3.598  -0.018  0.00  0.00    +0.000 C 
BRANCH  14  15
ATOM     15  O   UNL     1       1.024  -4.209   0.580  0.00  0.00    +0.000 OA
ATOM     16  H   UNL     1       1.625  -3.628   1.080  0.00  0.00    +0.000 HD
ENDBRANCH  14  15
ENDBRANCH   1  14
TORSDOF 5
