REMARK  Name = 119205
REMARK  10 active torsions:
REMARK  status: ('A' for Active; 'I' for Inactive)
REMARK    1  A    between atoms: O_3  and  C_19
REMARK    2  A    between atoms: O_3  and  C_25
REMARK    3  A    between atoms: O_4  and  C_20
REMARK    4  A    between atoms: O_4  and  C_26
REMARK    5  A    between atoms: O_5  and  C_23
REMARK    6  A    between atoms: O_6  and  C_24
REMARK    7  A    between atoms: C_7  and  C_10
REMARK    8  A    between atoms: C_8  and  C_11
REMARK    9  A    between atoms: C_10  and  C_13
REMARK   10  A    between atoms: C_11  and  C_14
REMARK                            x       y       z     vdW  Elec       q    Type
REMARK                         _______ _______ _______ _____ _____    ______ ____
ROOT
ATOM      1  O   UNL     1       0.169  -1.106  -0.274  0.00  0.00    +0.000 OA
ATOM      2  O   UNL     1      -1.839  -0.101   0.071  0.00  0.00    +0.000 OA
ATOM      3  C   UNL     1       1.601   0.719   0.150  0.00  0.00    +0.000 C 
ATOM      4  C   UNL     1       0.183   1.248  -0.121  0.00  0.00    +0.000 C 
ATOM      5  C   UNL     1       1.525  -0.686  -0.422  0.00  0.00    +0.000 C 
ATOM      6  C   UNL     1      -0.636  -0.020  -0.085  0.00  0.00    +0.000 C 
ENDROOT
BRANCH   3   7
ATOM      7  C   UNL     1       1.924   0.741   1.656  0.00  0.00    +0.000 C 
BRANCH   7   8
ATOM      8  C   UNL     1       3.303   0.245   2.036  0.00  0.00    +0.000 A 
ATOM      9  C   UNL     1       3.417  -0.817   2.952  0.00  0.00    +0.000 A 
ATOM     10  C   UNL     1       4.471   0.874   1.582  0.00  0.00    +0.000 A 
ATOM     11  C   UNL     1       4.664  -1.194   3.466  0.00  0.00    +0.000 A 
ATOM     12  C   UNL     1       5.723   0.474   2.057  0.00  0.00    +0.000 A 
ATOM     13  C   UNL     1       5.805  -0.536   3.009  0.00  0.00    +0.000 A 
BRANCH  11  14
ATOM     14  O   UNL     1       4.874  -2.156   4.423  0.00  0.00    +0.000 OA
ATOM     15  C   UNL     1       3.711  -2.808   4.926  0.00  0.00    +0.000 C 
ENDBRANCH  11  14
BRANCH  13  16
ATOM     16  O   UNL     1       7.038  -0.857   3.507  0.00  0.00    +0.000 OA
ATOM     17  H   UNL     1       6.867  -1.519   4.204  0.00  0.00    +0.000 HD
ENDBRANCH  13  16
ENDBRANCH   7   8
ENDBRANCH   3   7
BRANCH   4  18
ATOM     18  C   UNL     1       0.097   1.924  -1.494  0.00  0.00    +0.000 C 
BRANCH  18  19
ATOM     19  C   UNL     1      -1.265   2.480  -1.827  0.00  0.00    +0.000 A 
ATOM     20  C   UNL     1      -2.212   1.672  -2.482  0.00  0.00    +0.000 A 
ATOM     21  C   UNL     1      -1.597   3.801  -1.497  0.00  0.00    +0.000 A 
ATOM     22  C   UNL     1      -3.463   2.180  -2.830  0.00  0.00    +0.000 A 
ATOM     23  C   UNL     1      -2.846   4.316  -1.841  0.00  0.00    +0.000 A 
ATOM     24  C   UNL     1      -3.759   3.507  -2.507  0.00  0.00    +0.000 A 
BRANCH  22  25
ATOM     25  O   UNL     1      -4.455   1.498  -3.487  0.00  0.00    +0.000 OA
ATOM     26  C   UNL     1      -4.172   0.143  -3.824  0.00  0.00    +0.000 C 
ENDBRANCH  22  25
BRANCH  24  27
ATOM     27  O   UNL     1      -4.965   4.049  -2.860  0.00  0.00    +0.000 OA
ATOM     28  H   UNL     1      -5.427   3.332  -3.335  0.00  0.00    +0.000 HD
ENDBRANCH  24  27
ENDBRANCH  18  19
ENDBRANCH   4  18
TORSDOF 8
