REMARK  Name = 73399
REMARK  8 active torsions:
REMARK  status: ('A' for Active; 'I' for Inactive)
REMARK    1  A    between atoms: O_3  and  C_19
REMARK    2  A    between atoms: O_3  and  C_25
REMARK    3  A    between atoms: O_4  and  C_20
REMARK    4  A    between atoms: O_4  and  C_26
REMARK    5  A    between atoms: O_5  and  C_23
REMARK    6  A    between atoms: O_6  and  C_24
REMARK    7  A    between atoms: C_9  and  C_13
REMARK    8  A    between atoms: C_10  and  C_14
REMARK                            x       y       z     vdW  Elec       q    Type
REMARK                         _______ _______ _______ _____ _____    ______ ____
ROOT
ATOM      1  O   UNL     1      -2.005   0.104   0.368  0.00  0.00    +0.000 OA
ATOM      2  O   UNL     1       1.827  -0.152   0.531  0.00  0.00    +0.000 OA
ATOM      3  C   UNL     1       0.006   0.731  -0.669  0.00  0.00    +0.000 C 
ATOM      4  C   UNL     1      -0.091  -0.784  -0.645  0.00  0.00    +0.000 C 
ATOM      5  C   UNL     1      -1.098   1.219   0.270  0.00  0.00    +0.000 C 
ATOM      6  C   UNL     1       1.296  -1.262  -0.227  0.00  0.00    +0.000 C 
ATOM      7  C   UNL     1      -1.179  -1.064   0.377  0.00  0.00    +0.000 C 
ATOM      8  C   UNL     1       1.390   1.044  -0.132  0.00  0.00    +0.000 C 
ENDROOT
BRANCH   5   9
ATOM      9  C   UNL     1      -1.815   2.486  -0.154  0.00  0.00    +0.000 A 
ATOM     10  C   UNL     1      -3.164   2.675   0.201  0.00  0.00    +0.000 A 
ATOM     11  C   UNL     1      -1.141   3.531  -0.810  0.00  0.00    +0.000 A 
ATOM     12  C   UNL     1      -3.831   3.863  -0.105  0.00  0.00    +0.000 A 
ATOM     13  C   UNL     1      -1.802   4.717  -1.130  0.00  0.00    +0.000 A 
ATOM     14  C   UNL     1      -3.135   4.871  -0.775  0.00  0.00    +0.000 A 
BRANCH  12  15
ATOM     15  O   UNL     1      -5.134   4.159   0.204  0.00  0.00    +0.000 OA
ATOM     16  C   UNL     1      -5.854   3.155   0.915  0.00  0.00    +0.000 C 
ENDBRANCH  12  15
BRANCH  14  17
ATOM     17  O   UNL     1      -3.755   6.049  -1.088  0.00  0.00    +0.000 OA
ATOM     18  H   UNL     1      -4.664   5.948  -0.746  0.00  0.00    +0.000 HD
ENDBRANCH  14  17
ENDBRANCH   5   9
BRANCH   6  19
ATOM     19  C   UNL     1       2.301  -1.581  -1.328  0.00  0.00    +0.000 A 
ATOM     20  C   UNL     1       3.620  -1.924  -0.952  0.00  0.00    +0.000 A 
ATOM     21  C   UNL     1       1.991  -1.520  -2.696  0.00  0.00    +0.000 A 
ATOM     22  C   UNL     1       4.595  -2.196  -1.915  0.00  0.00    +0.000 A 
ATOM     23  C   UNL     1       2.957  -1.796  -3.662  0.00  0.00    +0.000 A 
ATOM     24  C   UNL     1       4.241  -2.129  -3.265  0.00  0.00    +0.000 A 
BRANCH  22  25
ATOM     25  O   UNL     1       5.904  -2.528  -1.679  0.00  0.00    +0.000 OA
ATOM     26  C   UNL     1       6.316  -2.572  -0.318  0.00  0.00    +0.000 C 
ENDBRANCH  22  25
BRANCH  24  27
ATOM     27  O   UNL     1       5.169  -2.387  -4.237  0.00  0.00    +0.000 OA
ATOM     28  H   UNL     1       5.990  -2.594  -3.750  0.00  0.00    +0.000 HD
ENDBRANCH  24  27
ENDBRANCH   6  19
TORSDOF 6
