REMARK  Name = 4829
REMARK  8 active torsions:
REMARK  status: ('A' for Active; 'I' for Inactive)
REMARK    1  A    between atoms: O_2  and  C_14
REMARK    2  A    between atoms: O_2  and  C_15
REMARK    3  A    between atoms: C_7  and  C_8
REMARK    4  A    between atoms: C_8  and  C_9
REMARK    5  A    between atoms: C_13  and  C_15
REMARK    6  A    between atoms: C_13  and  C_18
REMARK    7  A    between atoms: C_20  and  C_22
REMARK    8  A    between atoms: C_22  and  C_25
REMARK                            x       y       z     vdW  Elec       q    Type
REMARK                         _______ _______ _______ _____ _____    ______ ____
ROOT
ATOM      1  C   UNL     1       0.651   1.874   2.876  0.00  0.00    +0.000 A 
ATOM      2  C   UNL     1       0.844   0.505   2.657  0.00  0.00    +0.000 A 
ATOM      3  C   UNL     1       0.314   2.290   4.170  0.00  0.00    +0.000 A 
ATOM      4  C   UNL     1       0.267  -0.009   4.966  0.00  0.00    +0.000 A 
ATOM      5  C   UNL     1       0.649  -0.428   3.690  0.00  0.00    +0.000 A 
ATOM      6  C   UNL     1       0.118   1.358   5.198  0.00  0.00    +0.000 A 
ENDROOT
BRANCH   4   7
ATOM      7  O   UNL     1      -0.018  -0.813   6.039  0.00  0.00    +0.000 OA
BRANCH   7   8
ATOM      8  C   UNL     1       0.384  -2.187   5.962  0.00  0.00    +0.000 C 
BRANCH   8   9
ATOM      9  C   UNL     1      -0.283  -2.984   7.091  0.00  0.00    +0.000 C 
BRANCH   9  11
ATOM     10  N   UNL     1       0.513  -4.987   5.922  0.00  0.00    +0.000 NA
ATOM     11  C   UNL     1       0.096  -4.448   7.090  0.00  0.00    +0.000 A 
ATOM     12  C   UNL     1       0.591  -7.181   6.972  0.00  0.00    +0.000 A 
ATOM     13  C   UNL     1      -0.075  -5.226   8.233  0.00  0.00    +0.000 A 
ATOM     14  C   UNL     1       0.181  -6.601   8.172  0.00  0.00    +0.000 A 
ATOM     15  C   UNL     1       0.753  -6.318   5.892  0.00  0.00    +0.000 A 
BRANCH  12  16
ATOM     16  C   UNL     1       0.837  -8.652   6.756  0.00  0.00    +0.000 C 
ATOM     17  C   UNL     1       0.633  -9.575   7.950  0.00  0.00    +0.000 C 
ENDBRANCH  12  16
ENDBRANCH   9  11
ENDBRANCH   8   9
ENDBRANCH   7   8
ENDBRANCH   4   7
BRANCH   1  18
ATOM     18  C   UNL     1       0.848   2.901   1.778  0.00  0.00    +0.000 C 
BRANCH  18  23
ATOM     19  S   UNL     1      -1.865   2.806   0.939  0.00  0.00    +0.000 S 
ATOM     20  O   UNL     1       1.258   1.360  -0.813  0.00  0.00    +0.000 OA
ATOM     21  O   UNL     1      -3.253   1.003  -0.377  0.00  0.00    +0.000 OA
ATOM     22  N   UNL     1      -0.995   1.048  -0.701  0.00  0.00    +0.000 N 
ATOM     23  C   UNL     1      -0.081   2.856   0.559  0.00  0.00    +0.000 C 
ATOM     24  C   UNL     1       0.164   1.683  -0.366  0.00  0.00    +0.000 C 
ATOM     25  C   UNL     1      -2.154   1.471  -0.149  0.00  0.00    +0.000 C 
ATOM     26  H   UNL     1      -0.992   0.267  -1.338  0.00  0.00    +0.000 HD
ENDBRANCH  18  23
ENDBRANCH   1  18
TORSDOF 7
