REMARK  Name = 5212
REMARK  11 active torsions:
REMARK  status: ('A' for Active; 'I' for Inactive)
REMARK    1  A    between atoms: S_1  and  N_6
REMARK    2  A    between atoms: S_1  and  C_16
REMARK    3  A    between atoms: O_4  and  C_23
REMARK    4  A    between atoms: O_4  and  C_32
REMARK    5  A    between atoms: N_7  and  C_17
REMARK    6  A    between atoms: N_9  and  C_30
REMARK    7  A    between atoms: C_19  and  C_21
REMARK    8  A    between atoms: C_25  and  C_27
REMARK    9  A    between atoms: C_27  and  C_29
REMARK   10  A    between atoms: C_29  and  C_31
REMARK   11  A    between atoms: C_32  and  C_33
REMARK                            x       y       z     vdW  Elec       q    Type
REMARK                         _______ _______ _______ _____ _____    ______ ____
ROOT
ATOM      1  C   UNL     1       2.827  -0.079   0.220  0.00  0.00    +0.000 A 
ATOM      2  C   UNL     1       3.490  -1.305   0.148  0.00  0.00    +0.000 A 
ATOM      3  C   UNL     1       4.894  -1.357   0.028  0.00  0.00    +0.000 A 
ATOM      4  C   UNL     1       3.550   1.110   0.153  0.00  0.00    +0.000 A 
ATOM      5  C   UNL     1       5.635  -0.161  -0.004  0.00  0.00    +0.000 A 
ATOM      6  C   UNL     1       4.944   1.062   0.047  0.00  0.00    +0.000 A 
ENDROOT
BRANCH   3  12
ATOM      7  O   UNL     1       4.927  -5.943   0.979  0.00  0.00    +0.000 OA
ATOM      8  N   UNL     1       6.424  -2.862  -1.188  0.00  0.00    +0.000 N 
ATOM      9  N   UNL     1       6.764  -6.286  -1.361  0.00  0.00    +0.000 N 
ATOM     10  N   UNL     1       7.571  -6.014  -2.417  0.00  0.00    +0.000 NA
ATOM     11  N   UNL     1       4.945  -3.697   0.505  0.00  0.00    +0.000 NA
ATOM     12  C   UNL     1       5.459  -2.726  -0.204  0.00  0.00    +0.000 A 
ATOM     13  C   UNL     1       6.762  -4.120  -1.499  0.00  0.00    +0.000 A 
ATOM     14  C   UNL     1       7.561  -4.673  -2.509  0.00  0.00    +0.000 A 
ATOM     15  C   UNL     1       6.252  -5.163  -0.786  0.00  0.00    +0.000 A 
ATOM     16  C   UNL     1       5.341  -5.009   0.303  0.00  0.00    +0.000 A 
ATOM     17  C   UNL     1       6.511  -7.658  -0.989  0.00  0.00    +0.000 C 
ATOM     18  H   UNL     1       6.746  -2.046  -1.699  0.00  0.00    +0.000 HD
BRANCH  14  19
ATOM     19  C   UNL     1       8.287  -3.979  -3.609  0.00  0.00    +0.000 C 
BRANCH  19  20
ATOM     20  C   UNL     1       9.530  -3.213  -3.153  0.00  0.00    +0.000 C 
ATOM     21  C   UNL     1      10.607  -4.110  -2.561  0.00  0.00    +0.000 C 
ENDBRANCH  19  20
ENDBRANCH  14  19
ENDBRANCH   3  12
BRANCH   1  22
ATOM     22  S   UNL     1       1.045  -0.035   0.196  0.00  0.00    +0.000 S 
ATOM     23  O   UNL     1       0.662   1.250  -0.350  0.00  0.00    +0.000 OA
ATOM     24  O   UNL     1       0.599  -1.269  -0.419  0.00  0.00    +0.000 OA
BRANCH  22  25
ATOM     25  N   UNL     1       0.648  -0.067   1.816  0.00  0.00    +0.000 NA
ATOM     26  N   UNL     1       1.202  -0.171   4.673  0.00  0.00    +0.000 NA
ATOM     27  C   UNL     1       0.567   1.167   2.622  0.00  0.00    +0.000 C 
ATOM     28  C   UNL     1       0.571  -1.334   2.563  0.00  0.00    +0.000 C 
ATOM     29  C   UNL     1       1.395   1.085   3.924  0.00  0.00    +0.000 C 
ATOM     30  C   UNL     1       1.495  -1.318   3.790  0.00  0.00    +0.000 C 
ATOM     31  C   UNL     1       2.047  -0.208   5.865  0.00  0.00    +0.000 C 
ENDBRANCH  22  25
ENDBRANCH   1  22
BRANCH   5  32
ATOM     32  O   UNL     1       6.983  -0.012  -0.202  0.00  0.00    +0.000 OA
BRANCH  32  33
ATOM     33  C   UNL     1       7.880  -0.845   0.536  0.00  0.00    +0.000 C 
ATOM     34  C   UNL     1       8.668  -0.028   1.544  0.00  0.00    +0.000 C 
ENDBRANCH  32  33
ENDBRANCH   5  32
TORSDOF 7
